 Gaussian 16, Revision C.01,
 Gaussian 16:  ES64L-G16RevC.01  3-Jul-2019

 -----------------------------
 #p B3LYP/aug-cc-pVTZ OPT FREQ
 -----------------------------

 -------
 Ethanol
 -------
 Symbolic Z-matrix:
 Charge =  0 Multiplicity = 1

 SCF Done:  E(RB3LYP) =  -155.108392501     A.U. after   10 cycles
 SCF Done:  E(RB3LYP) =  -155.110215811     A.U. after    8 cycles
 SCF Done:  E(RB3LYP) =  -155.110247265     A.U. after    7 cycles
 SCF Done:  E(RB3LYP) =  -155.110250386     A.U. after    6 cycles
 Optimization completed.
    -- Stationary point found.
 Normal termination of Gaussian 16 at Sun May 15 14:22:22 2022.

 ----------------------------------------------------------------------
 #P Geom=AllCheck Guess=TCheck SCRF=Check GenChk RB3LYP/Aug-CC-pVTZ Fre
 q
 ----------------------------------------------------------------------

 Structure from the checkpoint file:  "/home/thomasegg/AlcoholMixtureSpec/Gau-1082573.chk"
 -------
 Ethanol
 -------
 Charge =  0 Multiplicity = 1

                         Standard orientation:
 ---------------------------------------------------------------------
 Center     Atomic      Atomic             Coordinates (Angstroms)
 Number     Number       Type             X           Y           Z
 ---------------------------------------------------------------------
      1          6           0       -0.000000    0.554041    0.000000
      2          6           0       -1.177855   -0.397505    0.000000
      3          1           0       -1.154256   -1.035534   -0.883510
      4          1           0       -1.154256   -1.035534    0.883510
      5          1           0       -2.115901    0.159282    0.000000
      6          8           0        1.200159   -0.223864   -0.000000
      7          1           0        1.958463    0.366217   -0.000000
      8          1           0       -0.034096    1.198635   -0.885294
      9          1           0       -0.034096    1.198635    0.885294
 ---------------------------------------------------------------------

 SCF Done:  E(RB3LYP) =  -155.110250386     A.U. after    1 cycles

 The electronic state is 1-A'.
 Alpha  occ. eigenvalues --  -19.13067 -10.22154 -10.16298  -1.02208  -0.75385
 Alpha  occ. eigenvalues --   -0.61542  -0.52196  -0.47001  -0.40787  -0.38794
 Alpha  occ. eigenvalues --   -0.37053  -0.33916  -0.28074
 Alpha virt. eigenvalues --   -0.01448   0.00314   0.01406   0.01454   0.03518
 Alpha virt. eigenvalues --    0.04400   0.05847   0.06398   0.07571   0.07981
 Alpha virt. eigenvalues --    0.08538   0.09343   0.09586   0.11694   0.12209

 Mulliken charges:
               1
     1  C   -0.000079
     2  C   -0.669293
     3  H    0.213143
     4  H    0.213143
     5  H    0.213592
     6  O   -0.461449
     7  H    0.105183
     8  H    0.192879
     9  H    0.192879
 Sum of Mulliken charges =  -0.00000

 Dipole moment (field-independent basis, Debye):
    X=             -0.1533    Y=              1.5725    Z=              0.0000  Tot=              1.5800
 Quadrupole moment (field-independent basis, Debye-Ang):
   XX=            -18.1246   YY=            -20.3634   ZZ=            -20.4411
   XY=              2.3991   XZ=             -0.0000   YZ=              0.0000

  Exact polarizability:      37.528       0.884      33.552      -0.000       0.000      31.027
 Approx polarizability:      45.767      -0.184      44.220       0.000       0.000      41.610

                      1                      2                      3
                     A"                     A"                     A'
 Frequencies --    230.0479               272.8419               416.6541
 Red. masses --      1.1545                 1.0663                 2.6365
 Frc consts  --      0.0360                 0.0468                 0.2697
 IR Inten    --     49.7963                64.8960                10.9467

                      4                      5                      6
                     A"                     A'                     A'
 Frequencies --    820.0172               894.3339              1028.3527
 Red. masses --      1.0833                 2.3059                 2.3290
 Frc consts  --      0.4292                 1.0867                 1.4511
 IR Inten    --      0.2290                14.2912                67.0694

                      7                      8                      9
                     A'                     A"                     A'
 Frequencies --   1096.2267              1177.8116              1264.3779
 Red. masses --      2.1006                 1.5029                 1.2527
 Frc consts  --      1.4873                 1.2283                 1.1800
 IR Inten    --     24.7452                 2.9188                64.3140

                     10                     11                     12
                     A"                     A'                     A'
 Frequencies --   1298.8628              1404.5371              1445.8005
 Red. masses --      1.1164                 1.2289                 1.4125
 Frc consts  --      1.1096                 1.4284                 1.7397
 IR Inten    --      0.0050                 1.4198                12.2164

                     13                     14                     15
                     A"                     A'                     A'
 Frequencies --   1482.9917              1499.9086              1525.7123
 Red. masses --      1.0388                 1.0473                 1.0899
 Frc consts  --      1.3460                 1.3882                 1.4948
 IR Inten    --      5.9970                 2.8744                 1.5355

                     16                     17                     18
                     A'                     A"                     A'
 Frequencies --   2981.4611              3005.0723              3034.1733
 Red. masses --      1.0549                 1.1079                 1.0345
 Frc consts  --      5.5251                 5.8945                 5.6112
 IR Inten    --     65.4304                44.5179                15.7405

                     19                     20                     21
                     A'                     A"                     A'
 Frequencies --   3098.2098              3103.0722              3828.4312
 Red. masses --      1.1013                 1.1033                 1.0665
 Frc consts  --      6.2282                 6.2594                 9.2102
 IR Inten    --     27.4311                31.1773                28.7105

 - Thermochemistry -
 -------------------
 Temperature   298.150 Kelvin.  Pressure   1.00000 Atm.
 Atom     1 has atomic number  6 and mass  12.00000

 Molecular mass:    46.04186 amu.
 Principal axes and moments of inertia in atomic units:
                           1         2         3
     Eigenvalues --    51.12236 193.51663 222.11877
           X            0.99470  -0.10279   0.00000
           Y            0.10279   0.99470  -0.00000
           Z           -0.00000   0.00000   1.00000
 This molecule is an asymmetric top.
 Rotational symmetry number  1.
 Rotational temperatures (Kelvin)      1.69425     0.44758     0.38994
 Rotational constants (GHZ):          35.30239     9.32603     8.12512
 Zero-point vibrational energy     208801.6 (Joules/Mol)
                                   49.90477 (Kcal/Mol)
 Warning -- explicit consideration of   3 degrees of freedom as
           vibrations may cause significant error
 Vibrational temperatures:    330.99   392.56   599.47  1179.82  1286.75
          (Kelvin)           1479.57  1577.23  1694.61  1819.16  1868.77
                             2020.82  2080.18  2133.69  2158.03  2195.16
                             4289.66  4323.63  4365.50  4457.63  4464.63
                             5508.26

 Zero-point correction=                           0.079528 (Hartree/Particle)
 Thermal correction to Energy=                    0.083882
 Thermal correction to Enthalpy=                  0.084826
 Thermal correction to Gibbs Free Energy=         0.054070
 Sum of electronic and zero-point Energies=           -155.030722
 Sum of electronic and thermal Energies=              -155.026369
 Sum of electronic and thermal Enthalpies=            -155.025425
 Sum of electronic and thermal Free Energies=         -155.056181

                     E (Thermal)             CV                S
                      KCal/Mol        Cal/Mol-Kelvin    Cal/Mol-Kelvin
 Total                   52.636             13.624             64.731
 Electronic               0.000              0.000              0.000
 Translational            0.889              2.981             37.406
 Rotational               0.889              2.981             22.312
 Vibrational             50.859              7.662              5.013
 Vibration     1          0.652              1.795              1.879
 Vibration     2          0.676              1.723              1.578
 Vibration     3          0.780              1.434              0.903

 Optimization completed.
    -- Stationary point found.
 Normal termination of Gaussian 16 at Sun May 15 14:50:06 2022.
