 Gaussian 16, Revision C.01,
 Gaussian 16:  ES64L-G16RevC.01  3-Jul-2019

 -----------------------------
 #p B3LYP/aug-cc-pVTZ OPT FREQ
 -----------------------------

 -----
 Water
 -----
 Symbolic Z-matrix:
 Charge =  0 Multiplicity = 1

 SCF Done:  E(RB3LYP) =  -76.4645069967     A.U. after    8 cycles
 SCF Done:  E(RB3LYP) =  -76.4661492483     A.U. after    7 cycles
 SCF Done:  E(RB3LYP) =  -76.4661980923     A.U. after    6 cycles
 Optimization completed.
    -- Stationary point found.
 Normal termination of Gaussian 16 at Mon Apr 18 22:27:12 2022.

 ----------------------------------------------------------------------
 #P Geom=AllCheck Guess=TCheck SCRF=Check GenChk RB3LYP/Aug-CC-pVTZ Fre
 q
 ----------------------------------------------------------------------

 Structure from the checkpoint file:  "/home/thomasegg/AlcoholMixtureSpec/Gau-760610.chk"
 -----
 Water
 -----
 Charge =  0 Multiplicity = 1

                         Standard orientation:
 ---------------------------------------------------------------------
 Center     Atomic      Atomic             Coordinates (Angstroms)
 Number     Number       Type             X           Y           Z
 ---------------------------------------------------------------------
      1          8           0       -0.000000    0.117089    0.000000
      2          1           0        0.763079   -0.468354   -0.000000
      3          1           0       -0.763079   -0.468354    0.000000
 ---------------------------------------------------------------------

 SCF Done:  E(RB3LYP) =  -76.4661980923     A.U. after    1 cycles

 The electronic state is 1-A'.
 Alpha  occ. eigenvalues --  -19.14048  -1.02117  -0.54057  -0.39912  -0.32415
 Alpha virt. eigenvalues --   -0.02507   0.01920   0.07568   0.09539   0.10266
 Alpha virt. eigenvalues --    0.11484   0.15087   0.17012   0.19142   0.21987
 Alpha virt. eigenvalues --    0.22415   0.30708   0.32999   0.34770   0.47150

 Mulliken charges:
               1
     1  O   -0.354594
     2  H    0.177297
     3  H    0.177297
 Sum of Mulliken charges =   0.00000

 Dipole moment (field-independent basis, Debye):
    X=              0.0000    Y=             -1.8483    Z=              0.0000  Tot=              1.8483
 Quadrupole moment (field-independent basis, Debye-Ang):
   XX=             -4.4721   YY=             -6.5047   ZZ=             -7.8028
   XY=              0.0000   XZ=             -0.0000   YZ=             -0.0000

  Exact polarizability:      10.265       0.000       9.743      -0.000      -0.000       9.410
 Approx polarizability:      12.889       0.000      12.051      -0.000       0.000      10.256

                      1                      2                      3
                     A'                     A'                     A'
 Frequencies --   1628.0362              3797.6840              3899.7151
 Red. masses --      1.0834                 1.0445                 1.0824
 Frc consts  --      1.6918                 8.8758                 9.6981
 IR Inten    --     75.6511                 4.6487                62.7705

 - Thermochemistry -
 -------------------
 Temperature   298.150 Kelvin.  Pressure   1.00000 Atm.
 Atom     1 has atomic number  8 and mass  15.99491

 Molecular mass:    18.01056 amu.
 Principal axes and moments of inertia in atomic units:
                           1         2         3
     Eigenvalues --     2.19097   4.19133   6.38230
           X            1.00000  -0.00000   0.00000
           Y            0.00000   1.00000   0.00000
           Z            0.00000  -0.00000   1.00000
 This molecule is an asymmetric top.
 Rotational symmetry number  1.
 Rotational temperatures (Kelvin)     39.53225    20.66501    13.57096
 Rotational constants (GHZ):         823.71833   430.58891   282.77281
 Zero-point vibrational energy      55778.5 (Joules/Mol)
                                   13.33138 (Kcal/Mol)
 Vibrational temperatures:   2342.38  5464.02  5610.82
          (Kelvin)

 Zero-point correction=                           0.021245 (Hartree/Particle)
 Thermal correction to Energy=                    0.024080
 Thermal correction to Enthalpy=                  0.025025
 Thermal correction to Gibbs Free Energy=         0.002949
 Sum of electronic and zero-point Energies=            -76.444953
 Sum of electronic and thermal Energies=               -76.442118
 Sum of electronic and thermal Enthalpies=             -76.441174
 Sum of electronic and thermal Free Energies=          -76.463250

                     E (Thermal)             CV                S
                      KCal/Mol        Cal/Mol-Kelvin    Cal/Mol-Kelvin
 Total                   15.111              6.009             46.463
 Electronic               0.000              0.000              0.000
 Translational            0.889              2.981             34.608
 Rotational               0.889              2.981             11.848
 Vibrational             13.333              0.048              0.007

 Optimization completed.
    -- Stationary point found.
 Normal termination of Gaussian 16 at Mon Apr 18 22:27:49 2022.
