 Gaussian 16, Revision C.01,
 Gaussian 16:  ES64L-G16RevC.01  3-Jul-2019

 -----------------------------
 #p B3LYP/aug-cc-pVTZ OPT FREQ
 -----------------------------

 --------
 Methanol
 --------
 Symbolic Z-matrix:
 Charge =  0 Multiplicity = 1

 SCF Done:  E(RB3LYP) =  -115.775262119     A.U. after    9 cycles
 SCF Done:  E(RB3LYP) =  -115.776727967     A.U. after    8 cycles
 SCF Done:  E(RB3LYP) =  -115.776754722     A.U. after    7 cycles
 SCF Done:  E(RB3LYP) =  -115.776758942     A.U. after    6 cycles
 Optimization completed.
    -- Stationary point found.
 Normal termination of Gaussian 16 at Sun May 15 14:15:11 2022.

 ----------------------------------------------------------------------
 #P Geom=AllCheck Guess=TCheck SCRF=Check GenChk RB3LYP/Aug-CC-pVTZ Fre
 q
 ----------------------------------------------------------------------

 Structure from the checkpoint file:  "/home/thomasegg/AlcoholMixtureSpec/Gau-1083106.chk"
 --------
 Methanol
 --------
 Charge =  0 Multiplicity = 1

                         Standard orientation:
 ---------------------------------------------------------------------
 Center     Atomic      Atomic             Coordinates (Angstroms)
 Number     Number       Type             X           Y           Z
 ---------------------------------------------------------------------
      1          6           0       -0.046479    0.666518    0.000000
      2          8           0       -0.046479   -0.757480    0.000000
      3          1           0        0.861875   -1.069956    0.000000
      4          1           0        0.438664    1.075722    0.890931
      5          1           0        0.438664    1.075722   -0.890931
      6          1           0       -1.088493    0.979244    0.000000
 ---------------------------------------------------------------------

 SCF Done:  E(RB3LYP) =  -115.776758942     A.U. after    1 cycles

 The electronic state is 1-A'.
 Alpha  occ. eigenvalues --  -19.13431 -10.21711  -1.02428  -0.68886  -0.51405
 Alpha  occ. eigenvalues --   -0.44560  -0.43202  -0.34498  -0.28503
 Alpha virt. eigenvalues --   -0.01532   0.00447   0.02037   0.02478   0.05627
 Alpha virt. eigenvalues --    0.07051   0.08763   0.08949   0.10247   0.11503
 Alpha virt. eigenvalues --    0.11668   0.12533   0.13076   0.16615   0.19013

 Mulliken charges:
               1
     1  C   -0.458865
     2  O   -0.423221
     3  H    0.142510
     4  H    0.234660
     5  H    0.234660
     6  H    0.270254
 Sum of Mulliken charges =   0.00000

 Dipole moment (field-independent basis, Debye):
    X=              1.3498    Y=              0.9614    Z=             -0.0000  Tot=              1.6572
 Quadrupole moment (field-independent basis, Debye-Ang):
   XX=            -11.9520   YY=            -13.6144   ZZ=            -13.9595
   XY=             -2.1097   XZ=             -0.0000   YZ=              0.0000

  Exact polarizability:      20.844      -0.610      23.792      -0.000      -0.000      20.251
 Approx polarizability:      27.367      -0.629      28.855       0.000      -0.000      25.255

                      1                      2                      3
                     A"                     A'                     A'
 Frequencies --    286.5763              1037.3359              1075.2424
 Red. masses --      1.0717                 3.6907                 1.2810
 Frc consts  --      0.0519                 2.3399                 0.8726
 IR Inten    --    105.2787               120.5595                 1.6867

                      4                      5                      6
                     A"                     A'                     A'
 Frequencies --   1170.1412              1365.1141              1476.6648
 Red. masses --      1.2642                 1.2899                 1.1348
 Frc consts  --      1.0198                 1.4163                 1.4579
 IR Inten    --      0.4299                24.3957                 3.1090

                      7                      8                      9
                     A"                     A'                     A'
 Frequencies --   1498.1006              1508.4848              2995.5643
 Red. masses --      1.0483                 1.0413                 1.0353
 Frc consts  --      1.3862                 1.3960                 5.4736
 IR Inten    --      2.9849                 5.3590                62.7069

                     10                     11                     12
                     A"                     A'                     A'
 Frequencies --   3041.4840              3109.6650              3830.5527
 Red. masses --      1.1056                 1.0976                 1.0666
 Frc consts  --      6.0259                 6.2533                 9.2213
 IR Inten    --     52.9598                24.2494                30.9973

 - Thermochemistry -
 -------------------
 Temperature   298.150 Kelvin.  Pressure   1.00000 Atm.
 Atom     1 has atomic number  6 and mass  12.00000

 Molecular mass:    32.02621 amu.
 Principal axes and moments of inertia in atomic units:
                           1         2         3
     Eigenvalues --    14.02956  73.13662  75.73922
           X           -0.05459   0.99851   0.00000
           Y            0.99851   0.05459   0.00000
           Z           -0.00000   0.00000   1.00000
 This molecule is an asymmetric top.
 Rotational symmetry number  1.
 Rotational temperatures (Kelvin)      6.17367     1.18428     1.14358
 Rotational constants (GHZ):         128.63850    24.67630    23.82836
 Zero-point vibrational energy     133951.4 (Joules/Mol)
                                   32.01515 (Kcal/Mol)
 Warning -- explicit consideration of   1 degrees of freedom as
           vibrations may cause significant error
 Vibrational temperatures:    412.32  1492.49  1547.03  1683.57  1964.09
          (Kelvin)           2124.59  2155.43  2170.37  4309.95  4376.02
                             4474.11  5511.31

 Zero-point correction=                           0.051019 (Hartree/Particle)
 Thermal correction to Energy=                    0.054391
 Thermal correction to Enthalpy=                  0.055335
 Thermal correction to Gibbs Free Energy=         0.028223
 Sum of electronic and zero-point Energies=           -115.725740
 Sum of electronic and thermal Energies=              -115.722368
 Sum of electronic and thermal Enthalpies=            -115.721424
 Sum of electronic and thermal Free Energies=         -115.748536

                     E (Thermal)             CV                S
                      KCal/Mol        Cal/Mol-Kelvin    Cal/Mol-Kelvin
 Total                   34.131              8.874             57.063
 Electronic               0.000              0.000              0.000
 Translational            0.889              2.981             36.324
 Rotational               0.889              2.981             18.992
 Vibrational             32.353              2.913              1.747
 Vibration     1          0.684              1.699              1.494

 Optimization completed.
    -- Stationary point found.
 Normal termination of Gaussian 16 at Sun May 15 14:21:54 2022.
